% Model:              basic_detector.mph
% Version:            COMSOL 5.2.0.220
% Date:               Feb 17 2020, 21:20
% Dimension:          3
% Nodes:              11146
% Expressions:        4
% Description:        Electric potential, Electric field, x component, Electric field, y component, Electric field, z component
% Length unit:        cm
% x                       y                        z                        V (V)                    es.Ex (V/m)              es.Ey (V/m)              es.Ez (V/m)
-8.31463265278226         -5.555797310666123       -5.000000000000001       0                        0                        0                        0
-9.238747106493232        -3.826950354901937       -4.999999999999999       0                        0                        0                        0
-8.793688929038584        -4.761411032383593       -3.329322219197666       0                        0                        0                        0
-7.685817246602357        -4.033742942157103       -5                       0                        0                        0                        0
-7.793468275817618        -3.2728591646402334      -3.2339668035079776      0                        0                        0                        0
-9.59451591294168         -2.8187345381055025      -3.294259269826379       0                        0                        0                        0
-9.06706292604138         -4.217626097131646       -1.8867279340101382      0                        0                        0                        0
-7.900086372996302        -2.412188157503037       -4.999999999999999       0                        0                        0                        0
-9.807842034804723        -1.9509570958033022      -4.999999999999999       0                        0                        0                        0
-7.720044173189297        -6.356171643686631       -3.3720442233837558      0                        0                        0                        0
-7.071001425911503        -7.07113419719617        -4.999999999999999       0                        0                        0                        0
-6.434028984633462        -5.160941479850322       -5                       0                        0                        0                        0
-10                       0                        -5                       0                        0                        0                        0
-9.896367607238698        1.4359346024093895       -3.6962370642573563      0                        0                        0                        0
-10                       0                        -3.0110666599549933      0                        0                        0                        0
-8.7511934434257          0.7285495211801043       -3.443499667893288       0                        0                        0                        0
-8.648258698049577        -0.8090345608474988      -5                       0                        0                        0                        0
-9.920773096461463        -1.2562886485702385      -3.633428466794962       0                        0                        0                        0
-8.291878171811392        -5.58970092078617        -1.702379524575438       0                        0                        0                        0
-7.3047449366518284       -4.960702193175928       -2.965964448806096       0                        0                        0                        0
-6.342034784566657        -7.73166183891578        -3.2926497293530574      0                        0                        0                        0
-5.5556411884038726       -8.314736970799444       -5.000000000000001       0                        0                        0                        0
-5.557047792915194        -6.67531402068728        -5                       0                        0                        0                        0
-5.939804602301878        -6.219847006438874       -3.5363695594300673      0                        0                        0                        0
-4.69437603202439         -7.145160246590302       -3.6963146502595063      0                        0                        0                        0
-4.712376087971694        -8.820063015960407       -3.410415161503629       0                        0                        0                        0
-5.526975852600512        -8.333818928004785       -1.7088802283155877      0                        0                        0                        0
-5.110687106500244        -6.653940793643488       -2.5641761302423416      0                        0                        0                        0
-8.158208214465628        -1.9486711492827367      -3.011822334619741       0                        0                        0                        0
-9.899001425922826        -1.417663842234081       -2.022957996382019       0                        0                        0                        0
-8.369643395098763        -0.6732629903452753      -2.812982303196239       0                        0                        0                        0
-8.535761736843925        0.19258829230288793      -2.1961834025208273      0                        0                        0                        0
-7.299707616055863        -3.9521835681889814      -1.9966867523810123      0                        0                        0                        0
-6.295895127430581        -6.135322898739774       -2.1502822069584195      0                        0                        0                        0
-7.077108173212321        -7.065022286210524       -1.7148964166850214      0                        0                        0                        0
-6.02337261788763         -6.357095742772832       -0.9141662561356378      0                        0                        0                        0
-6.31749919083062         -7.751722645570753       -0.0378632155933615      0                        0                        0                        0
-7.812822629475266        -6.241778797775455       -0.0262057604781415      0                        0                        0                        0
-9.572136210394858        -2.893822449572113       -1.1508703449666218      0                        0                        0                        0
-7.880220779728714        -2.5510130560580775      -1.9028986374986103      0                        0                        0                        0
-6.6145907986219905       -5.901036475794953       0.28794525546503213      0                        0                        0                        0
-8.927261238084338        -4.505996758431694       -0.13890535916517122     0                        0                        0                        0
-6.7900601637635285       -4.794323968250217       -0.9392253787192837      0                        0                        0                        0
-8.400383189240516        -5.4252707097365525      1.6057383621592844       0                        0                        0                        0
-7.624238235218182        -4.440149922699007       0.556499164506197        0                        0                        0                        0
-6.854995963331391        -5.584972198217159       1.1544637640257804       0                        0                        0                        0
-8.162820009765126        -3.6495891979776465      -0.735043410018117       0                        0                        0                        0
-9.582541704472785        -2.8591772386544725      0.3910168850437312       0                        0                        0                        0
-8.41622548795341         -2.1181728583619264      -0.43431306690638743     0                        0                        0                        0
-6.491532512935913        -3.565213326057292       -3.332250611014183       0                        0                        0                        0
-5.752172640258717        -2.995166520020746       -5                       0                        0                        0                        0
-7.007867349587777        -1.5445600339743464      -3.095350474286411       0                        0                        0                        0
-9.907937579183674        -1.3537994412023944      -0.15810748136516437     0                        0                        0                        0
-5.993037704742449        -2.008380617674255       -3.5109534367115653      0                        0                        0                        0
-10                       0                        -1.003729457656024       0                        0                        0                        0
-9.277452275786278        -3.732141378687043       1.75280807015044         0                        0                        0                        0
-9.847229898799494        1.7412820909287852       -1.9095349329007143      0                        0                        0                        0
-9.807858199625969        1.950876082659957        -5.000000000000001       0                        0                        0                        0
-8.182458470056593        0.7980305926381295       -5                       0                        0                        0                        0
-6.339440855098869        -0.5484578652767933      -5                       0                        0                        0                        0
-8.505143109852359        2.435094977724591        -3.7267643950220912      0                        0                        0                        0
-9.238815168682672        3.8267864120301676       -5.000000000000001       0                        0                        0                        0
-9.540047321061916        2.997915461099486        -3.533178948114404       0                        0                        0                        0
-8.820106623210249        4.7122944682184995       -3.4104286177325367      0                        0                        0                        0
-8.299151576742146        2.5464086904058325       -5                       0                        0                        0                        0
-8.556670324850447        2.198864109734316        -2.4169400283138964      0                        0                        0                        0
-7.187067589321115        0.20177543946835308      -3.404383162786261       0                        0                        0                        0
-7.3588307160649915       1.6072188813177841       -3.2062614542953756      0                        0                        0                        0
-5.191654485173424        -5.008813881140753       -3.572576550870374       0                        0                        0                        0
-3.8267864120301676       -9.238815168682672       -5.000000000000001       0                        0                        0                        0
-3.969394517690325        -7.222252552858707       -5                       0                        0                        0                        0
-4.308484478963085        -5.0381279385986355      -5                       0                        0                        0                        0
-2.9982388442954506       -9.539945693375715       -3.533341292697593       0                        0                        0                        0
-1.950876082659957        -9.807858199625969       -5.000000000000001       0                        0                        0                        0
-2.618611370696367        -8.107777227665379       -5                       0                        0                        0                        0
-4.2770200275097165       -6.02102585755429        -3.811562962281422       0                        0                        0                        0
-3.2990976018915195       -7.584195518939922       -3.714893728909653       0                        0                        0                        0
-1.436056769369081        -9.896349880392734       -3.696213605367592       0                        0                        0                        0
-2.082865109333254        -8.409093525858264       -3.928392385637866       0                        0                        0                        0
-3.8028152856511275       -9.248707796401513       -1.8762890878176668      0                        0                        0                        0
-2.7705770144199056       -8.479695203961366       -2.5518719296339483      0                        0                        0                        0
-3.762166822401822        -7.310766388228851       -2.277675728943308       0                        0                        0                        0
-4.526342594959559        -8.916962639433606       0.08628257014569042      0                        0                        0                        0
-4.551282556160854        -7.1194271001777665      -0.5591440296111784      0                        0                        0                        0
-1.7413322270849023       -9.847221033109571       -1.9093643192578371      0                        0                        0                        0
-7.125691479373371        -7.016018881159439       1.6691139524115475       0                        0                        0                        0
-7.731542467021391        -6.34218030969199        3.292670842432316        0                        0                        0                        0
-6.948636257514893        -5.537443750909298       2.328274174353969        0                        0                        0                        0
-8.849528802711875        -4.656805768976509       3.339392152033548        0                        0                        0                        0
-6.38976302431211         -7.692264198084577       3.333789483119751        0                        0                        0                        0
-5.632715496406556        -8.262718447129943       1.6603798663996976       0                        0                        0                        0
-5.6909037253552235       -6.561934873717873       1.2836049079922927       0                        0                        0                        0
-9.848595797894285        -1.733539964840454       1.8915492156007998       0                        0                        0                        0
-8.33153829668452         -2.040602687976547       1.3498602308010947       0                        0                        0                        0
-4.230330191602617        -9.061142669112732       1.8771804461784127       0                        0                        0                        0
-4.565966766467156        -7.504106320092509       1.3216025910904603       0                        0                        0                        0
-8.548056892302137        -0.6869093792978432      -1.1449500529300691      0                        0                        0                        0
-8.688817384113703        -1.0296505053347504      0.3164742339160719       0                        0                        0                        0
-9.886148799977683        1.5046800007642247       0.0019578904939284315    0                        0                        0                        0
-8.620079733312984        0.7858271209305996       -0.737043559800003       0                        0                        0                        0
-8.516499642008359        1.674798572020806        -1.0398414211550384      0                        0                        0                        0
-7.628938179764297        -4.369496070712374       2.032910130920017        0                        0                        0                        0
-8.31463265278226         -5.555797310666123       5.000000000000001        0                        0                        0                        0
-7.31548737595887         -4.26728112902696        3.222062517370917        0                        0                        0                        0
-7.448545754363938        -3.0521279830975283      1.117112602089102        0                        0                        0                        0
-4.629055093662638        -3.3759022403981125      -3.3214842785080245      0                        0                        0                        0
-4.284079912557183        -1.0520528926715658      -5                       0                        0                        0                        0
-5.78233292309155         -0.6636782151694839      -3.686414629490658       0                        0                        0                        0
-3.6423833925994007       -2.9035096034412646      -5                       0                        0                        0                        0
-3.7582930341496565       -4.7495396850207445      -3.8609861170941597      0                        0                        0                        0
-4.604890060728095        -1.5567855671443758      -3.3755954505885457      0                        0                        0                        0
-4.41977621145906         0.5766681804814313       -5                       0                        0                        0                        0
-5.070537856292507        -1.153102704837947       -0.6175838893525601      0                        0                        0                        0
-6.088009338697571        -1.4687033493632664      -1.4901967518541035      0                        0                        0                        0
-4.819117797818635        -1.95348489370878        -1.8500000000000005      0                        0                        0                        0
-5.995469267777223        -2.4665678766702173      -0.265772602753024       0                        0                        0                        0
-8.314736970799444        5.5556411884038726       -5.000000000000001       0                        0                        0                        0
-7.271233186950267        3.896948170324441        -5                       0                        0                        0                        0
-6.652605016429834        5.516257935883962        -5                       0                        0                        0                        0
-7.197920813358246        4.899716800845343        -3.1942499695054622      0                        0                        0                        0
-10.000000000000002       0                        1.0037294576596791       0                        0                        0                        0
-8.602430261686706        0.31580823919621054      0.506777202441543        0                        0                        0                        0
-8.17724862869395         -3.1251787394739687      3.0181142098738185       0                        0                        0                        0
-9.568888116296753        -2.904544752245132       3.5114374153407284       0                        0                        0                        0
-9.238747106493232        -3.826950354901937       4.999999999999999        0                        0                        0                        0
-8.432611871899597        -1.7280537737408297      3.3125639353320557       0                        0                        0                        0
-8.546426512525075        -0.7344170504736685      2.0119989980587776       0                        0                        0                        0
-9.898736276390713        -1.4195140472945391      3.698706022291926        0                        0                        0                        0
-10.000000000000002       0                        3.011066659954977        0                        0                        0                        0
-9.807842034804723        -1.9509570958033022      4.999999999999999        0                        0                        0                        0
-7.73166183891578         6.342034784566657        -3.2926497293530574      0                        0                        0                        0
-7.07113419719617         7.071001425911503        -4.999999999999999       0                        0                        0                        0
-9.24839253157189         3.8035819410084146       -1.8742133128480138      0                        0                        0                        0
-7.509819418053507        3.2152018985118587       -2.844837410151676       0                        0                        0                        0
-9.573182338640025        2.89035982381964         -0.4576210936267887      0                        0                        0                        0
-9.895591146660827        1.4412757744886402       1.9237583469057458       0                        0                        0                        0
-6.157590153575441        1.9209060591001919       -5                       0                        0                        0                        0
-6.619366655820323        2.7449023851387953       -3.8402080056073333      0                        0                        0                        0
-6.10145263720665         3.971530654303341        -3.3923471642172993      0                        0                        0                        0
-7.96320288380246         3.160525522171704        -0.9511210817602909      0                        0                        0                        0
-8.337917778867531        5.520790442757696        -1.7076526838854151      0                        0                        0                        0
-6.885445777296844        3.9001071914549774       -1.987506351753809       0                        0                        0                        0
-5.2                      0                        -1.8500000000000003      0                        0                        0                        0
-5.420171337235562        -0.8087817636706682      -2.6616499171806245      0                        0                        0                        0
-5.460959505694608        0.9973665215129058       -3.4117833787045653      0                        0                        0                        0
-6.0550151522924995       6.081127414280797        -3.1963249507724565      0                        0                        0                        0
-6.360168415350964        7.716751760188481        -3.3775668803556362      0                        0                        0                        0
-6.844253341635962        5.588662142475986        -2.0181629720783665      0                        0                        0                        0
0                         -10                      -3.0110666599549933      0                        0                        0                        0
1.2562886485702385        -9.920773096461463       -3.633428466794962       0                        0                        0                        0
0                         -10                      -5                       0                        0                        0                        0
0.3476221075775079        -8.716190995549955       -3.0558809422780824      0                        0                        0                        0
-2.3421797938651725       -3.9428170008808023      -5                       0                        0                        0                        0
-2.986490550378029        -3.5736043231117733      -3.14309463623888        0                        0                        0                        0
-2.0611567853579684       -6.342017667725405       -4.999999999999999       0                        0                        0                        0
-2.7666305711221106       -5.183342345475271       -3.3244601108907945      0                        0                        0                        0
1.9509570958033022        -9.807842034804723       -4.999999999999999       0                        0                        0                        0
0.7803793553782407        -8.635319696999428       -4.999999999999999       0                        0                        0                        0
-0.8056687456205704       -8.199021616935141       -5                       0                        0                        0                        0
-7.685817246602357        -4.033742942157103       5                        0                        0                        0                        0
-1.905653901672139        -7.40491692630668        -2.77594060551131        0                        0                        0                        0
-1.0325197459944593       -8.72291064158994        -2.9832545884642077      0                        0                        0                        0
-2.8827331522409017       -9.575481688822302       -0.44712888081337704     0                        0                        0                        0
-1.919309077651707        -8.790125900385272       -0.9681016219703311      0                        0                        0                        0
-1.5007630189243844       -9.886744173944674       0.026749355488787426     0                        0                        0                        0
0                         -10                      -1.003729457656024       0                        0                        0                        0
-2.8289978125623647       -7.809285125825714       -1.151901702076808       0                        0                        0                        0
-2.9067740360340886       -9.568211154831298       1.1326093860984974       0                        0                        0                        0
-3.4781225977362524       -7.922650791171089       0.8339233860655916       0                        0                        0                        0
-2.026322712351432        -7.735729122235376       -0.10087948852890699     0                        0                        0                        0
-3.676800188589517        -3.677110329210477       -1.850000000000001       0                        0                        0                        0
-4.905461783858548        -4.090395714846337       -2.183657298698564       0                        0                        0                        0
0.23170941648059448       -8.717092576331083       -1.3760946128046014      0                        0                        0                        0
1.417663842234081         -9.899001425922826       -2.022957996382019       0                        0                        0                        0
-6.289457297421894        -6.291589320828686       3.420812120009784        0                        0                        0                        0
-7.071001425911503        -7.07113419719617        4.999999999999999        0                        0                        0                        0
-6.354657016183897        -5.004007302614157       3.3509666736819868       0                        0                        0                        0
-4.839321474147502        -8.7510552317909         3.3142785424829833       0                        0                        0                        0
-4.8983901414569635       -7.276543805045319       2.925607900530157        0                        0                        0                        0
-5.5556411884038726       -8.314736970799444       5.000000000000001        0                        0                        0                        0
-6.434028984633462        -5.160941479850322       5                        0                        0                        0                        0
-5.557047792915194        -6.67531402068728        5                        0                        0                        0                        0
-3.5309510610624586       -8.175612749375752       2.657415755387262        0                        0                        0                        0
-3.959804491076279        -7.806586810130358       3.9380138027629257       0                        0                        0                        0
-3.8267864120301676       -9.238815168682672       5.000000000000001        0                        0                        0                        0
-2.9776786812831086       -9.546383067478073       3.1893583236158456       0                        0                        0                        0
1.3537994412023944        -9.907937579183674       -0.15810748136516437     0                        0                        0                        0
-1.4342528388572415       -9.896611480412371       1.9006042583844454       0                        0                        0                        0
-2.1552517428155884       -8.416637745777257       1.3649229653529003       0                        0                        0                        0
-6.3048056882462635       0.36496921762329365      -0.8643819469141443      0                        0                        0                        0
-9.57697691772522         2.8777618242930263       1.1355839015472797       0                        0                        0                        0
-8.528842962107657        1.6811160248036552       0.6541398222898086       0                        0                        0                        0