% Model:              basic_detector.mph
% Version:            COMSOL 5.2.0.220
% Date:               Feb 19 2020, 21:11
% Dimension:          3
% Nodes:              20038
% Expressions:        4
% Description:        Electric potential, Electric field, x component, Electric field, y component, Electric field, z component
% Length unit:        cm
% x                       y                        z                        V (V)                    es.Ex (V/m)              es.Ey (V/m)              es.Ez (V/m)
0                         1.1861681356502585       1.8907939687880522       0                        0                        0                        0
0                         1.19992534609532         1.8500000000000003       0                        0                        0                        0
-6.938893903907228E-18    1.1573696340270763       1.8500000000000003       0                        0                        0                        0
4.3368086899420177E-19    1.3767638585876192       1.8525439809724868       0                        0                        0                        0
0                         1.3753143715476266       1.8517024863720457       0                        0                        0                        0
4.3368086899420177E-19    1.371700409601338        1.85522771236098         0                        0                        0                        0
4.3368086899420177E-19    1.3703031353663362       1.8500000000000003       0                        0                        0                        0
0                         1.3767002909364139       1.8500000000000003       0                        0                        0                        0
4.3368086899420177E-19    1.3834098585329901       1.8500000000000005       0                        0                        0                        0
0                         1.890727270612583        1.9029885793410513       0                        0                        0                        0
0                         1.864250266876983        1.8500000000000005       0                        0                        0                        0
0                         1.963726800348702        1.8500000000000003       0                        0                        0                        0
0                         1.5578625423709718       1.8665589222927421       0                        0                        0                        0
0                         1.5605688028394038       1.85                     0                        0                        0                        0
0                         1.530728226506727        1.8500000000000005       0                        0                        0                        0
0                         1.575963055283936        1.85                     0                        0                        0                        0
1.734723475976807E-18     1.6996551898441432       1.8500000000000003       0                        0                        0                        0
0                         1.6545059063849799       1.8500000000000003       0                        0                        0                        0
0                         1.658950177786247        1.894486839334659        0                        0                        0                        0
3.469446951953614E-18     1.7998958512998477       1.951508858310591        0                        0                        0                        0
3.469446951953614E-18     1.7839374182891163       1.9800000000000009       0                        0                        0                        0
-1.734723475976807E-18    1.823037716063687        1.9800000000000009       0                        0                        0                        0
-1.734723475976807E-18    1.7645977112116342       1.9180991298248649       0                        0                        0                        0
0                         1.7406866373482046       1.9800000000000009       0                        0                        0                        0
0                         1.7910557577420076       1.8500000000000005       0                        0                        0                        0
0                         1.7427589305399238       1.8500000000000005       0                        0                        0                        0
3.469446951953614E-18     1.5776223415358344       1.9401569052975016       0                        0                        0                        0
3.469446951953614E-18     1.5936172947327503       1.9800000000000009       0                        0                        0                        0
0                         1.542096910208139        1.9800000000000009       0                        0                        0                        0
-3.469446951953614E-18    1.5037652278654035       1.9123863889707304       0                        0                        0                        0
1.734723475976807E-18     1.3988936154391072       1.980000000000001        0                        0                        0                        0
0                         1.3703767970757892       1.9800000000000009       0                        0                        0                        0
-1.734723475976807E-18    1.4221304808860187       1.9342499503670947       0                        0                        0                        0
-1.734723475976807E-18    1.417859505739237        1.9800000000000009       0                        0                        0                        0
-1.3877787807814457E-17   1.4599643533930924       1.8500000000000005       0                        0                        0                        0
-1.734723475976807E-18    0.6737437115931734       1.8500000000000005       0                        0                        0                        0
-3.469446951953614E-18    0.6521576097231357       1.8500000000000003       0                        0                        0                        0
1.734723475976807E-18     0.6686472261067116       1.8759581139908796       0                        0                        0                        0
3.469446951953614E-18     0.5687264811601778       1.9470581457507907       0                        0                        0                        0
0                         0.5280970663856437       1.9800000000000013       0                        0                        0                        0
3.469446951953614E-18     0.5626048263238488       1.980000000000001        0                        0                        0                        0
3.469446951953614E-18     0.6100198010636013       1.9800000000000013       0                        0                        0                        0
3.469446951953614E-18     0.5534222363582331       1.8500000000000008       0                        0                        0                        0
3.469446951953614E-18     0.5141828317659566       1.8939168805064304       0                        0                        0                        0
3.469446951953614E-18     0.5175552372224654       1.8500000000000005       0                        0                        0                        0
3.469446951953614E-18     0.3938687896701816       1.8500000000000003       0                        0                        0                        0
3.469446951953614E-18     0.4041539068445834       1.8812464130081161       0                        0                        0                        0
1.734723475976807E-18     0.37931653725795406      1.8781004344812684       0                        0                        0                        0
0                         0.3712419499337458       1.8500000000000003       0                        0                        0                        0
0                         0.8377120268365126       1.980000000000001        0                        0                        0                        0
-1.734723475976807E-18    0.8537661848582963       1.9453341035053897       0                        0                        0                        0
0                         0.8680308062391658       1.9800000000000009       0                        0                        0                        0
1.734723475976807E-18     0.8078886409773981       1.9800000000000009       0                        0                        0                        0
0                         0.8205938465038247       1.955213126596605        0                        0                        0                        0
6.938893903907228E-18     0.7607121215371575       1.8500000000000005       0                        0                        0                        0
-6.938893903907228E-18    0.7355926204200517       1.9253623194285265       0                        0                        0                        0
-6.938893903907228E-18    0.8521737585200162       1.8500000000000005       0                        0                        0                        0
0                         1.117933871564857        1.980000000000001        0                        0                        0                        0
1.734723475976807E-18     1.1077804695951547       1.9623789704580348       0                        0                        0                        0
0                         1.0935658020567887       1.9800000000000009       0                        0                        0                        0
1.734723475976807E-18     1.142446472015334        1.9800000000000009       0                        0                        0                        0
1.734723475976807E-18     1.122575645533133        1.9656180588883752       0                        0                        0                        0
0                         1.1294224908882096       1.8500000000000005       0                        0                        0                        0
0                         1.2599057035687582       1.8961105842473818       0                        0                        0                        0
1.0408340855860843E-17    1.250935741704168        1.9800000000000009       0                        0                        0                        0
0                         1.0078012784198624       1.9132097099861591       0                        0                        0                        0
0                         1.041818194226265        1.8500000000000005       0                        0                        0                        0
3.469446951953614E-18     0.9593253756114914       1.8500000000000005       0                        0                        0                        0
0                         0.9025073215963373       1.8500000000000003       0                        0                        0                        0
0                         0.9194813606544889       1.889159449938654        0                        0                        0                        0
-6.938893903907228E-18    0.9749323945940314       1.9800000000000009       0                        0                        0                        0
0                         0.23076145957476155      1.8500000000000005       0                        0                        0                        0
-1.734723475976807E-18    0.23768022604596845      1.8601671109224696       0                        0                        0                        0
0                         0.2482229776021779       1.85                     0                        0                        0                        0
0                         0.2254556884216358       1.8666030636279736       0                        0                        0                        0
-1.734723475976807E-18    0.262909571414053        1.8725367711158125       0                        0                        0                        0
-1.734723475976807E-18    0.24290453165138454      1.8908594529319365       0                        0                        0                        0
1.0408340855860843E-17    0.4298368796982893       1.980000000000001        0                        0                        0                        0
6.938893903907228E-18     0.37868556454997826      1.9800000000000009       0                        0                        0                        0
-3.469446951953614E-18    0.29637904091106204      1.9800000000000009       0                        0                        0                        0
0                         0.10356936868795237      1.8788926993069577       0                        0                        0                        0
3.469446951953614E-18     0.10945026563334942      1.8500000000000003       0                        0                        0                        0
0                         0.18237908277118656      1.9800000000000009       0                        0                        0                        0
0                         0.09814009512775748      1.9800000000000009       0                        0                        0                        0
0                         0.07366437581388235      1.8500000000000005       0                        0                        0                        0
3.469446951953614E-18     0.07149852959788733      1.8832295098144347       0                        0                        0                        0
0                         0.05351959710367936      1.9800000000000009       0                        0                        0                        0
1.0842021724855044E-18    2.061864287873196        1.9779993692603983       0                        0                        0                        0
-3.469446951953614E-18    2.138014195252275        1.8500000000000003       0                        0                        0                        0
6.938893903907228E-18     2.03298721995721         1.8500000000000005       0                        0                        0                        0
0                         2.1634612954000705       1.8943301251963576       0                        0                        0                        0
0                         2.197144757908398        1.85                     0                        0                        0                        0
0                         1.2744450508190792       1.85                     0                        0                        0                        0
-1.0842021724855044E-18   2.060237472529983        1.9792177624854466       0                        0                        0                        0
0                         1.997971271716762        1.8500000000000003       0                        0                        0                        0
5.204170427930421E-18     1.9879816800266294       1.8680125241786403       0                        0                        0                        0
-2.4936649967166602E-18   2.0595696471785487       1.9800000000000009       0                        0                        0                        0
1.3877787807814457E-17    1.9268974669846273       1.9800000000000009       0                        0                        0                        0
-3.469446951953614E-18    1.6573318491421913       1.9800000000000013       0                        0                        0                        0
-1.3877787807814457E-17   0.6989433682637354       1.980000000000001        0                        0                        0                        0
1.0408340855860843E-17    0.24370103645889482      1.9800000000000009       0                        0                        0                        0
6.938893903907228E-18     -0.025292282207690437    1.9146556193994138       0                        0                        0                        0
6.938893903907228E-18     -0.03181625599240114     1.85                     0                        0                        0                        0
1.0408340855860843E-17    -0.13630663752138572     1.8500000000000008       0                        0                        0                        0
6.938893903907228E-18     -0.09649084851417064     1.922640581211092        0                        0                        0                        0
0                         -0.04373042427781908     1.9800000000000009       0                        0                        0                        0
6.938893903907228E-18     -0.10539519730711258     1.9800000000000009       0                        0                        0                        0
-3.469446951953614E-18    -0.13953395097124582     1.8946560119337867       0                        0                        0                        0
-3.469446951953614E-18    -0.17722778168344072     1.980000000000001        0                        0                        0                        0
0                         -0.18653727756439942     1.9117036786860997       0                        0                        0                        0
-3.469446951953614E-18    -0.23385268833194794     1.9800000000000009       0                        0                        0                        0
-1.734723475976807E-18    -0.28000507135198505     1.8907493122935284       0                        0                        0                        0
-3.469446951953614E-18    -0.24490213892270263     1.8500000000000005       0                        0                        0                        0
-3.469446951953614E-18    -0.2868894528984593      1.8500000000000005       0                        0                        0                        0
-4.3368086899420177E-19   -0.3862929180311049      1.8500000000000003       0                        0                        0                        0
-2.6020852139652106E-18   2.396286840128742        1.8500000000000003       0                        0                        0                        0
0                         2.336319262476677        1.9626693125101458       0                        0                        0                        0
-3.469446951953614E-18    2.2653694455639544       1.8500000000000003       0                        0                        0                        0
-3.469446951953614E-18    2.6832505659067762       1.8779354282792746       0                        0                        0                        0
-3.469446951953614E-18    2.655856258529635        1.8500000000000003       0                        0                        0                        0
-3.469446951953614E-18    2.699365049869813        1.8500000000000003       0                        0                        0                        0
-1.734723475976807E-18    2.643186981557583        1.919277940143447        0                        0                        0                        0
-3.469446951953614E-18    2.593869380375702        1.8500000000000003       0                        0                        0                        0
0                         2.2038303703097153       1.9800000000000013       0                        0                        0                        0
1.8431436932253575E-18    2.0619299747749062       1.9800000000000009       0                        0                        0                        0
-1.3877787807814457E-17   2.236201084629829        1.9018697862618037       0                        0                        0                        0
1.734723475976807E-18     2.3302577528122774       1.980000000000001        0                        0                        0                        0
-2.0599841277224584E-18   2.060583829181577        1.9800000000000009       0                        0                        0                        0
0                         2.9633965330123204       1.8500000000000005       0                        0                        0                        0
8.673617379884035E-19     2.9567911257129786       1.8630362650309986       0                        0                        0                        0
0                         2.9566427766592276       1.8500000000000008       0                        0                        0                        0
0                         2.766013127586577        1.9800000000000009       0                        0                        0                        0
0                         2.6843682749660256       1.980000000000001        0                        0                        0                        0
3.469446951953614E-18     2.7835412641120745       1.9444986230175298       0                        0                        0                        0
-3.469446951953614E-18    2.828833659047133        1.9800000000000009       0                        0                        0                        0
6.938893903907228E-18     -0.1823277634572349      1.8500000000000008       0                        0                        0                        0
8.673617379884035E-19     -0.3937581767095251      1.852422789702655        0                        0                        0                        0
4.9873299934333204E-18    -0.3945454121641576      1.8500000000000003       0                        0                        0                        0
3.469446951953614E-18     -0.28437607887978633     1.9800000000000009       0                        0                        0                        0
-1.0408340855860843E-17   -0.41051594309284056     1.9800000000000009       0                        0                        0                        0
-1.951563910473908E-18    -0.3966848003286521      1.8500000000000003       0                        0                        0                        0
-1.734723475976807E-18    -0.4321418043882028      1.9631904988359457       0                        0                        0                        0
-6.938893903907228E-18    -0.513240670201708       1.8500000000000003       0                        0                        0                        0
-6.938893903907228E-18    2.817556816966631        1.8500000000000003       0                        0                        0                        0
-6.938893903907228E-18    2.869494574461824        1.9351106257776487       0                        0                        0                        0
-7.37257477290143E-18     2.400899583464832        1.8500000000000003       0                        0                        0                        0
-7.37257477290143E-18     2.4006127436504734       1.852247427328971        0                        0                        0                        0
-1.5612511283791264E-17   2.3458445270661854       1.9800000000000009       0                        0                        0                        0
0                         2.404911676856035        1.8548451042982639       0                        0                        0                        0
-8.673617379884035E-19    2.3633685839731537       1.9800000000000009       0                        0                        0                        0
0                         2.490896708520317        1.9800000000000009       0                        0                        0                        0
-3.469446951953614E-18    2.5307264809469885       1.884963726182788        0                        0                        0                        0
-6.938893903907228E-18    2.5856408502197565       1.9800000000000013       0                        0                        0                        0
-6.938893903907228E-18    2.5393581352005437       1.8500000000000005       0                        0                        0                        0
3.469446951953614E-18     2.4045319992682863       1.8500000000000003       0                        0                        0                        0
3.469446951953614E-18     2.6271631919604896       1.9800000000000013       0                        0                        0                        0
0                         3.0298634046187036       1.962531514693868        0                        0                        0                        0
0                         2.998790323197677        1.9800000000000009       0                        0                        0                        0
-3.469446951953614E-18    3.0391731404937774       1.9800000000000009       0                        0                        0                        0
8.673617379884035E-19     2.9721539982815077       1.8500000000000005       0                        0                        0                        0
0                         3.052636963628496        1.9544779501350962       0                        0                        0                        0
0                         3.064291038741046        1.9800000000000009       0                        0                        0                        0
0                         3.0890088251465135       1.8500000000000003       0                        0                        0                        0
6.938893903907228E-18     2.9032115957714884       1.9800000000000009       0                        0                        0                        0
-3.469446951953614E-18    -0.42953160468772733     1.9800000000000009       0                        0                        0                        0
1.734723475976807E-18     -0.5464277177195924      1.903123249990209        0                        0                        0                        0
6.938893903907228E-18     -0.5670300309974052      1.9800000000000009       0                        0                        0                        0
0                         -0.470668351638097       1.9800000000000009       0                        0                        0                        0
0                         -0.5396931891006576      1.8500000000000005       0                        0                        0                        0
0                         -0.616207058649322       1.9163448486560797       0                        0                        0                        0
-1.0408340855860843E-17   -0.6267638664952895      1.8500000000000008       0                        0                        0                        0
3.469446951953614E-18     -0.6138740336848585      1.9800000000000009       0                        0                        0                        0
0                         3.1676786137095343       1.9800000000000009       0                        0                        0                        0
-1.734723475976807E-18    3.2027312711073854       1.875680397308292        0                        0                        0                        0
-1.734723475976807E-18    3.1997663988688          1.8500000000000005       0                        0                        0                        0
-1.734723475976807E-18    3.222451535378443        1.8500000000000003       0                        0                        0                        0
-6.938893903907228E-18    3.2425518356581913       1.9800000000000009       0                        0                        0                        0
-1.734723475976807E-18    3.2321336536224727       1.8748789492060929       0                        0                        0                        0
-1.734723475976807E-18    3.2495273444107804       1.8500000000000003       0                        0                        0                        0
-1.3877787807814457E-17   -0.7090323533285984      1.9238938220979018       0                        0                        0                        0
-1.0408340855860843E-17   -0.672838335162454       1.850000000000001        0                        0                        0                        0
6.938893903907228E-18     -0.7192331539108693      1.9800000000000009       0                        0                        0                        0
1.3877787807814457E-17    -0.7951296285412309      1.8500000000000003       0                        0                        0                        0
-3.469446951953614E-18    -0.7988864135307228      1.8927818095942608       0                        0                        0                        0
1.3877787807814457E-17    -0.8130123821606631      1.9800000000000013       0                        0                        0                        0
0                         3.3395723562552186       1.8500000000000005       0                        0                        0                        0
0                         3.301100753743058        1.9249507501354466       0                        0                        0                        0
1.3877787807814457E-17    3.3089644574920607       1.9800000000000009       0                        0                        0                        0
-6.938893903907228E-18    3.3511283861890635       1.8872330987404746       0                        0                        0                        0
3.469446951953614E-18     3.40206606954895         1.8500000000000005       0                        0                        0                        0
1.734723475976807E-18     3.42677935470389         1.9800000000000009       0                        0                        0                        0
0                         3.43546328611899         1.9469559166191788       0                        0                        0                        0